<?xml version="1.0"?>
<VTKFile type="PolyData" version="0.1" byte_order="LittleEndian" header_type="UInt32" compressor="vtkZLibDataCompressor">
  <PolyData>
    <Piece NumberOfPoints="10089" NumberOfVerts="10089" NumberOfLines="0" NumberOfStrips="0" NumberOfPolys="0">
      <PointData>
      </PointData>
      <CellData Normals="Normals_">
        <DataArray type="Float64" Name="Normals_" NumberOfComponents="3" format="ascii" RangeMin="0.9999999999999998" RangeMax="1.0000000000000002">
          -0.557961473661492 -0.6400507135378963 0.5282178319681435 -0.5501083374357665 -0.5539780368195218 -0.6248913119937303
          -0.5579614736614796 0.6400507135379027 0.5282178319681491 -0.553872649040974 0.550154668289525 -0.6249439411687875
          0.5304623118323449 -0.5962496406748157 -0.6025745611296891 0.596766419321386 -0.5967664193213241 0.5364137223643122
          0.6320131538550566 0.5662351693605436 0.5290908299464481 -0.506983866784618 -0.0013432834615984119 0.861954496716421
          0.5527393816672644 0.5527393816672649 -0.6236652562939353 -0.840039132484439 -0.08315091706739666 0.5361158278633843
          -0.6785095264030288 -0.7345916025795133 0 -0.663464486660525 -0.7482077752471475 0
          -0.6898517324245688 -0.7239506801369975 0 -0.7100291131443138 -0.7041723215857744 0
          -0.685194135800041 -0.7283604851069524 0 -0.6842621154442536 -0.7292361465038296 0
          -0.8834086026786585 -0.46860350053466315 0 -0.67737782731842 -0.7356352894317787 0
          -0.42151957909323323 -0.9068193008759041 0 -0.6126685927334004 -0.7903399240061677 0
          -0.6929482451223649 -0.7209873296957686 0 -0.6869174940856809 -0.7267354101177737 0
          -0.5927680446150615 -0.8053732335279318 0 -0.8649133013763407 -0.5019212897479837 0
          -0.687576429295056 -0.7261120119360793 0 -0.7538459919374558 -0.6570511551164286 0
          -0.6828702355860787 -0.7305396918378996 0 -0.6896720730307863 -0.7241218348326598 0
          -0.7477568128881797 -0.663972701832923 0 -0.7568300685034515 -0.6536116946697489 0
          -0.7737656788772079 -0.6334719206024 0 -0.6833497746152332 -0.7300911487843897 0
          -0.6201745322723654 -0.7844638611948627 0 -0.6269186632930368 -0.7790847127333921 0
          -0.7751434753151619 -0.631785242528134 0 -0.7187613899866654 -0.695256833310135 0
          -0.6690808554470227 -0.7431896183843532 0 -0.7048554673054951 -0.7093509499602804 0
          -0.7839941836832697 -0.6207681692474281 0 -0.8485892179026969 -0.5290523029524482 0
          -0.7341747014608951 -0.6789606083822576 0 -0.7825045023356751 -0.6226449259605328 0
          -0.634022515224077 -0.7733145868202249 0 -0.7885570484559047 -0.6149616096395871 0
          -0.7504595145374067 -0.6609164221293641 0 -0.5264388886923868 -0.8502129712444553 0
          -0.7822049350343816 -0.623021219227611 0 -0.5750589326567423 -0.8181119874269588 0
          -0.809020720114022 -0.5877801242183928 0 -0.5839446487061201 -0.8117934757359695 0
          -0.5772570040188222 -0.8165625213731118 0 -0.845407282306641 -0.534122202330983 0
          -0.6749621485340332 -0.7378523551811172 0 -0.6922054191414688 -0.7217005318767498 0
          -0.5512548689439936 -0.8343369040534768 0 -0.5619388386999793 -0.8271787845203228 0
          -0.7525623818214189 -0.6585209650931951 0 -0.6027304032238815 -0.7979448984921059 0
          -0.6874785187081369 -0.7262047137790182 0 -0.7404353106280418 -0.6721276298257313 0
          -0.596406916818194 -0.8026822469516912 0 -0.7305437014078819 -0.6828659460928413 0
          -0.7160633243918102 -0.6980353253675269 0 -0.5868468183266126 -0.8096979756797789 0
          -0.6361446168468637 -0.7715698454817664 0 -0.6133371480960261 -0.7898212093666727 0
          -0.75395260506809 -0.6569288160151302 0 -0.8083012846261307 -0.5887690831486879 0
          -0.7137018708988255 -0.7004495980979047 0 -0.7353870760097009 -0.6776472891098306 0
          -0.7040904166903126 -0.7101103330644204 0 -0.6624378191990243 -0.7491169038907352 0
          -0.5347832712232576 -0.8449892619552934 0 -0.6379964686672692 -0.7700392885873383 0
          -0.7742325399916433 -0.6329012355953245 0 -0.5528640017667166 -0.8332715017030715 0
          -0.7491436578758911 -0.6624075632602106 0 -0.7467937398082272 -0.6650557196079453 0
          -0.6635548787763286 -0.7481276113418966 0 -0.6976286546093026 -0.7164595314935901 0
          -0.6060832908571561 -0.7954011846507145 0 -0.7684111444923304 -0.6399564930680731 0
          -0.755715012959661 -0.654900617794318 0 -0.7168570908151557 -0.6972201311981975 0
          -0.6672415585225369 -0.7448413942447185 0 -0.7522504359938514 -0.6588772886866417 0
          -0.5154722122869618 -0.8569062949704509 0 -0.6832530342004776 -0.730181683730728 0
          -0.7659596982729493 -0.6428885911428297 0 -0.5257780011853035 -0.8506218275294768 0
          -0.7816546302209494 -0.6237115030638372 0 -0.8019817173085645 -0.5973485792255688 0
          -0.5441119135310883 -0.8390126492214153 0 -0.6304372603620014 -0.7762402081490329 0
          -0.6755980491344629 -0.7372701513052783 0 -0.7101352345972974 -0.7040653013630495 0
          -0.7483053716431649 -0.6633544081183036 0 -0.7680232697452112 -0.6404219367962614 0
          -0.7080359446579404 -0.7061763951537449 0 -0.7459703319611306 -0.6659791767268708 0
          -0.7021650640903562 -0.7120142012424935 0 -0.6348654495772798 -0.7726227157759721 0
          -0.5420561730567595 -0.8403422548289836 0 -0.7053166383963898 -0.7088924034021076 0
          -0.7385957834207483 -0.6741485509241202 0 -0.7863535363337479 -0.6177767524724518 0
          -0.593621079726412 -0.8047446885220484 0 -0.7175899246736712 0 0.6964658642078843
          -0.686646683807479 0 0.7269912871666289 -0.7048607707401715 0 0.7093456800965037
          -0.7752020890147091 0 0.6317133219960072 -0.7792920262322123 0 0.6266609432946122
          -0.7054902138399319 0 0.7087196612032767 -0.661427631740355 0 0.7500089919263271
          -0.7155010196755105 0 0.6986116881668276 -0.6331756721103406 0 0.7740081189804269
          -0.5977528464848029 0 0.8016804441417512 -0.842729107459019 0 0.5383378599367921
          -0.7421078290834378 0 0.6702805159133502 -0.7264847585579546 0 0.6871825780554907
          -0.6866466838073644 0 0.7269912871667373 -0.7175899246735757 0 0.6964658642079825
          -0.7345218720994514 0.6785850126605489 0 -0.7479333946099701 0.663773784679093 0
          -0.726373805892318 0.6872998574956269 0 -0.7040092880230069 0.7101907647789704 0
          -0.7272120291883376 0.6864128965890576 0 -0.8001264340770985 0.5998313842164866 0
          -0.5329894326575039 0.8461218970546928 0 -0.770838650962514 0.6370304342669127 0
          -0.894171741097018 0.44772413093726277 0 -0.6965563219485486 0.7175021187101192 0
          -0.7575738641677378 0.6527494468247078 0 -0.6958902262870534 0.7181481692228656 0
          -0.7845988550340507 0.6200037392461892 0 -0.6743251087683381 0.7384345926922499 0
          -0.7077474753567126 0.706465505970532 0 -0.6499699820426726 0.7599598821276342 0
          -0.6186327206407558 0.785680314728972 0 -0.7138573176344358 0.7002911751976945 0
          -0.7076213416511041 0.7065918460043898 0 -0.6921200649690457 0.7217823880278905 0
          -0.702578726442011 0.7116060238299853 0 -0.6766588837826485 0.736296648775492 0
          -0.5571575219645652 0.8304068254285395 0 -0.6563824811193228 0.7544282858427578 0
          -0.7633496037049506 0.6459855900277457 0 -0.692066536929523 0.7218337124728778 0
          -0.7648777276023611 0.6441754899232417 0 -0.5984884959150488 0.8011314001194452 0
          -0.7739548589522267 0.6332407727746525 0 -0.6535207547409334 0.7569085962801855 0
          -0.6832303228059516 0.7302029348054383 0 -0.6879536858863816 0.7257545908055573 0
          -0.7569892298796355 0.6534273531512409 0 -0.7646934858675201 0.6443941904391914 0
          -0.6416001622774954 0.7670392635096925 0 -0.8136503480102629 0.5813545486041869 0
          -0.5792289440755138 0.8151649099079065 0 -0.8369720736771282 0.5472456010646479 0
          -0.7166872028989603 0.6973947613804283 0 -0.5200051013168548 0.8541631545579846 0
          -0.8209613864331753 0.5709837142911508 0 -0.7605073576270749 0.6493293147510625 0
          -0.7697203805508995 0.6383811837488466 0 -0.6569622114789988 0.7539235058602588 0
          -0.6252287595098749 0.7804415405920825 0 -0.714574253393083 0.6995596017407797 0
          -0.603608846740717 0.7972806031356473 0 -0.7390566895791072 0.6736432361334679 0
          -0.7342441568639737 0.6788854970546302 0 -0.7147711316787677 0.6993584412292839 0
          -0.6796538013509957 0.7335330328684192 0 -0.8452767236857265 0.534328794278508 0
          -0.6583803710978219 0.7526853837780394 0 -0.6870616184820847 0.72659915524915 0
          -0.5789304441395606 0.8153769317612384 0 -0.7101845654971487 0.7040155416818764 0
          -0.6766544082996592 0.7363007617330286 0 -0.6546033252811094 0.7559725435033432 0
          -0.7453337808183826 0.6666914992490717 0 -0.6627765117220634 0.7488172644307378 0
          -0.7813491503715276 0.6240941477162656 0 -0.6737274577913741 0.7389799135416146 0
          -0.53740779000309 0.8433225167419608 0 -0.6301144435172037 0.7765022782136605 0
          -0.7804361910101824 0.6252354370647253 0 -0.565706326244699 0.8246067865635877 0
          -0.7578104134052788 0.6524748097317785 0 -0.7583644314691786 0.6518307978934635 0
          -0.6509749202453013 0.759099238052327 0 -0.6872257322933929 0.7264439364973803 0
          -0.607454039267876 0.7943548263698923 0 -0.7716947992369637 0.6359930320613757 0
          -0.7595743408295241 0.6504204953362047 0 -0.725433786328423 0.6882919596023246 0
          -0.6711886059004825 0.7412866215637288 0 -0.7531559581219578 0.6578420043942129 0
          -0.5154722122868998 0.8569062949704882 0 -0.68325303420048 0.7301816837307259 0
          -0.7659596982729882 0.6428885911427834 0 -0.5257780011852682 0.8506218275294987 0
          -0.7816546302209062 0.6237115030638911 0 -0.8019817173085345 0.5973485792256091 0
          -0.5441119135311059 0.839012649221404 0 -0.6304372603619499 0.7762402081490748 0
          -0.6755980491344271 0.737270151305311 0 -0.7106959014976814 0.7034993501023281 0
          -0.7486261126861932 0.662992415797013 0 -0.7680232697452173 0.640421936796254 0
          -0.7120151931448655 0.7021640582733354 0 -0.7508214421764311 0.6605052323548273 0
          -0.7205291760260997 0.693424622071606 0 -0.6612281488409121 0.7501848673363257 0
          -0.5898555983234347 0.8075087449226187 0 -0.7144798397985537 0.6996560287179929 0
          -0.7382820882340547 0.674492074225312 0 -0.786353536333709 0.6177767524725014 0
          -0.5936210797264173 0.8047446885220445 0 -0.671111526286249 0 -0.7413564050345429
          -0.6959744383649263 0 -0.718066557599381 -0.6954265336299962 0 -0.7185972003308724
          -0.7294328847060202 0 -0.6840523859394496 -0.6474296283171569 0 -0.7621252366751203
          -0.6559118823836093 0 -0.7548374676365702 -0.7029922015371456 0 -0.711197556645098
          -0.7013648931601486 0 -0.7128024176743885 -0.7070332663459119 0 -0.7071802883849568
          -0.7328995381853846 0 -0.6803368775302793 -0.7574478815376969 0 -0.6528956323594567
          -0.7649123965651857 0 -0.6441343226229325 -0.7181327625260177 0 -0.6959061254125803
          -0.7042253980517749 0 -0.7099764705529468 -0.6815533807450329 0 -0.731768398603695
          0 -0.6684200889607446 -0.743783963711043 0 -0.6909777882417679 -0.7228759894729625
          0 -0.6968078477334673 -0.7172578499654453 0 -0.7334557052041395 -0.6797372496071541
          0 -0.7033300039222188 -0.7108634929314992 0 -0.7046916611325093 -0.7095136804391475
          0 -0.7043563266926409 -0.7098465785280997 0 -0.7021680323190725 -0.7120112740604336
          0 -0.6935912304358577 -0.7203687979517667 0 -0.7296138771914992 -0.6838593351045141
          0 -0.7456763276884302 -0.6663083477828393 0 -0.7137237460536702 -0.7004273083761913
          0 -0.691660188180772 -0.7222230847084156 0 -0.6626987024409529 -0.7488861260452603
          0 -0.6987806021249731 -0.7153360539591584 0.6022091730949822 -0.7983383442126888 0
          0.8043756656107682 -0.5941210218240334 0 0.5510909102403698 -0.8344452100949714 0
          0.7278763833578518 -0.6857083713576011 0 0.6552426786208988 -0.7554184483540957 0
          0.6297078064870528 -0.7768320786690418 0 0.8228658454843739 -0.5682356908319701 0
          0.6382535834186045 -0.7698261902879834 0 0.4839251176277313 -0.8751094106047462 0
          0.8047493432314864 -0.5936147694999607 0 0.6933989752426726 -0.7205538572045893 0
          0.7243608241591616 -0.6894210588772728 0 0.7013267201191221 -0.7128399761846657 0
          0.8155953919753431 -0.5786226374664116 0 0.4664077553463604 -0.8845698422130214 0
          0.8012844060134896 -0.5982836289583804 0 0.8363384890012712 -0.548213399886459 0
          0.5987974826074615 -0.8009004774770502 0 0.6259771843279908 -0.7798413714985892 0
          0.8056964906707831 -0.5923285953934562 0 0.8203658264424432 -0.5718390602305926 0
          0.6175220842513766 -0.7865535426541767 0 0.5285345405254798 -0.8489117972272031 0
          0.5813797183127769 -0.8136323636228812 0 0.7844012519272345 -0.62025371903358 0
          0.7432273256078133 -0.6690389693208142 0 0.611275402108959 -0.7914179570723238 0
          0.8088722645401045 -0.5879844042640613 0 0.7089193075658801 -0.7052895968042582 0
          0.7848334602048949 -0.6197067368867405 0 0.5279064610542734 -0.8493025187629865 0
          0.6789234033611474 -0.7342091067049744 0 0.8587555065587795 -0.512385577426779 0
          0.5788684883844449 -0.815420917781429 0 0.619893195093145 -0.7846861963085704 0
          0.7944697130982681 -0.6073037748685212 0 0.7858824476500036 -0.6183759200321755 0
          0.8239175328403554 -0.5667097132379698 0 0.4833643839906782 -0.8754192551511031 0
          0.8408064108259523 -0.5413359211376796 0 0.6288096761892774 -0.777559252488668 0
          0.7368401572865223 -0.6760669956520383 0 0.7422766667584428 -0.6700935382362492 0
          0.7677735443560145 -0.6407213002445004 0 0.7875658878996367 -0.6162304538213418 0
          0.7144291256300623 -0.6997078136275632 0 0.8359713546233531 -0.5487730808350533 0
          0.7536847729365745 -0.6572360786228524 0 0.6076815698178967 -0.7941807789814966 0
          0.7160772646165208 -0.6980210248261302 0 0.6280509975940561 -0.7781721817317236 0
          0.6439389363246653 -0.7650768891327582 0 0.7434646274861574 -0.6687752594682829 0
          0.5164754746059564 -0.8563019818560226 0 0.8126961743651682 -0.582687676351766 0
          0.6647533489062805 -0.7470629057300898 0 0.6426435695112888 -0.7661652841037561 0
          0.7976673082997442 -0.6030977244774192 0 0.6907491654174563 -0.7230944547395504 0
          0.6548326822831396 -0.7557738803464094 0 0.7487462169571034 -0.6628567738149972 0
          0.7030809354674455 -0.7111098355262863 0 0.699654793207876 -0.7144810496725889 0
          0.7071067811865273 -0.7071067811865677 0 0.715906291025861 -0.6981963781555983 0
          0.7430743733608256 -0.6692088430784642 0 0.6404206325796516 -0.7680243572740898 0
          0.7476722903746759 -0.6640678777097161 0 0.5475548882416543 -0.8367697678350178 0
          0.7144131312992238 -0.6997241440933979 0 0.7638594846582283 -0.645382590172423 0
          0.6565641891243873 -0.7542701542282021 0 0.7812230680286782 -0.624251966740882 0
          0.7112735047405252 -0.702915358669968 0 0.7190918493367163 -0.6949150395677887 0
          0.696427113186052 -0.7176275329301001 0 0.7138010229718988 -0.7003485557950918 0
          0.6897400027000701 -0.7240571308089628 0 0.6949210682141694 -0.7190860233324506 0
          0.7141585375696796 -0.6999839878285335 0 0.717729292479855 -0.6963222405728305 0
          0.7033312476430876 -0.7108622623890073 0 0.6931159962523141 -0.7208260648305956 0
          0.7071067811865487 -0.7071067811865465 0 0.7071067811865392 -0.7071067811865558 0
          0.707106781186589 -0.7071067811865062 0 0.7071067811865782 -0.7071067811865168 0
          0.707106781186578 -0.7071067811865169 0 0.707106781186538 -0.707106781186557 0
          0.7071067811865638 -0.7071067811865313 0 0.7071067811865497 -0.7071067811865454 0
          0.7071067811865476 -0.7071067811865475 0 0.7071067811865449 -0.7071067811865501 0
          0.7071067811865434 -0.7071067811865517 0 0.7071067811865744 -0.7071067811865207 0
          0.7071067811865832 -0.7071067811865118 0 0.7071067811866238 -0.7071067811864712 0
          0 -0.663543161232111 0.7481380041022491 0 -0.6005595774215301 0.799580010985313
          0 -0.828140999437496 0.5605198346630254 0 -0.7365527048460425 0.6763801541913974
          0 -0.785598273739829 0.6187369007074013 0 -0.6559525727412214 0.7548021080483099
          0 -0.6610986712475314 0.7502989716604631 0 -0.8226313466992154 0.5685751203032323
          0 -0.6276395858220432 0.7785040464308032 0 -0.6118820599927431 0.7909490152083364
          0 -0.8260560872258789 0.5635879175045105 0 -0.6701016646822715 0.742269330492678
          0 -0.7167366308067115 0.6973439625176687 0 -0.7007806196414487 0.7133768451070914
          0 -0.709434315151642 0.7047715604969604 0 0.663543161232108 0.7481380041022516
          0 0.6005595774215285 0.7995800109853142 0 0.8281409994374953 0.5605198346630264
          0 0.7365527048460415 0.6763801541913987 0 0.7855982737398286 0.6187369007074021
          0 0.6559525727412249 0.7548021080483068 0 0.6610986712475306 0.7502989716604637
          0 0.8226313466992151 0.5685751203032331 0 0.627639585822043 0.7785040464308034
          0 0.6118875700128313 0.7909447525989364 0 0.8260763106233988 0.5635582747390318
          0 0.6796051073000419 0.7335781472561043 0 0.7045708484538622 0.7096336516182168
          0 0.6730209467415721 0.7396234212402134 0 0.7013667250359735 0.7128006151879451
          0.7038260795540084 0 0.7103723317666831 0.6145119107505673 0 0.7889075430908786
          0.8035454048241735 0 0.5952434647990308 0.7051068974031937 0 0.7091010247027161
          0.6825178778805485 0 0.73086889821187 0.7575390086594581 0 0.6527898975621831
          0.5512959420670611 0 0.8343097651714209 0.8088118914076792 0 0.5880674487824782
          0.6237643953139731 0 0.7816124225846167 0.5667410787998207 0 0.8238959579951922
          0.6888582572874643 0 0.7248960624578378 0.6039605057760611 0 0.7970142454578366
          0.827506248714657 0 0.5614565061856497 0.5432453683972377 0 0.83957398108502
          0.6584318628062539 0 0.7526403404292693 -0.5339433144305237 -0.3075728950059211 0.7875934555547193
          -0.3420114942139217 -0.45603542672873254 0.8216202452434478 -0.07844963865064103 -0.6784384624774169 0.7304566426741991
          0.30320038983281433 -0.8186076946287222 0.48780217906429846 0.43351742507156676 -0.3765220454702664 0.8187147191996765
          0.6422446035842008 -0.12872491445388584 0.7556135027683216 0.3397067418818172 0.08373019179658574 0.9367969814755742
          0.5017122224424018 0.37850448685701266 0.777829800972562 0.33041308167348227 0.7737596629497732 0.5404842083270205
          -0.08039559635038988 0.6770444035618244 0.7315377117367762 -0.29002108467317106 0.43623197278025283 0.8518153769269758
          -0.6566827832592658 0.38184436903148544 0.6503557488096887 0 0.6711115262862477 -0.7413564050345441
          0 0.6959744383649268 -0.7180665575993807 0 0.6953489507102507 -0.7186722735337389
          0 0.728891085006941 -0.6846296708421308 0 0.6443903376582133 -0.7646967325239031
          0 0.6552840696758138 -0.7553825441649439 0 0.705510722496915 -0.7086992454080085
          0 0.7161328043203073 -0.6979640438993491 0 0.7207220400324402 -0.6932241636090579
          0 0.7231886713383654 -0.6906505235268048 0 0.7347607458947749 -0.6783263567724271
          0 0.7672180618521864 -0.6413863465710621 0 0.7176740054943702 -0.6963792227211167
          0 0.690977788241767 -0.7228759894729633 0 0.668347033107173 -0.7438496106988559
          0.7071067811865477 0.7071067811865472 0 0.7071067811865477 0.7071067811865476 0
          0.7071067811865481 0.7071067811865469 0 0.7071067811865471 0.7071067811865479 0
          0.7071067811865485 0.7071067811865467 0 0.7071067811865486 0.7071067811865465 0
          0.7071067811865471 0.7071067811865479 0 0.7071067811865474 0.7071067811865477 0
          0.7071067811865468 0.7071067811865482 0 0.7071067811865472 0.7071067811865479 0
          0.7071067811865488 0.7071067811865466 0 0.7071067811865479 0.7071067811865471 0
          0.7073021372684586 0.7069113711176743 0 0.7070532647163502 0.7071602936067259 0
          0.7151357908536876 0.6989855510953503 0 0.7217423719670405 0.6921617935912024 0
          0.5983912732268224 0.8012040215363264 0 0.7384874810035167 0.674267187694226 0
          0.6461845136596355 0.7631812198334418 0 0.8193242787793457 0.5733303813707287 0
          0.7301481440361947 0.6832888757769296 0 0.46491511296603066 0.8853552607489171 0
          0.7226421713841247 0.6912223174473155 0 0.7178569456535201 0.6961906388174142 0
          0.7041569299672811 0.7100443774716151 0 0.6914812032215648 0.7223944529073136 0
          0.658009063301501 0.7530100083087085 0 0.8224907070097685 0.5687785481912722 0
          0.7056099058304339 0.7086004944917595 0 0.7587844200188134 0.6513418487527981 0
          0.650551163630373 0.7594624306041529 0 0.6759251002365321 0.7369703242805874 0
          0.6933750893255215 0.720576842191605 0 0.8351249672258435 0.5500602595316569 0
          0.6880678298444781 0.725646374987921 0 0.7427543098320575 0.6695640635711448 0
          0.6650220584967859 0.7468237152854063 0 0.8187532921585634 0.5741454925186769 0
          0.7415869353670481 0.6708567785249766 0 0.5522757572662551 0.8336614948142828 0
          0.7365991578744239 0.6763295650928544 0 0.794354319300276 0.6074547023515375 0
          0.7270296831531582 0.6866060295498564 0 0.652623947221001 0.7576819804599288 0
          0.8571446120610984 0.515075833265966 0 0.6615188215360214 0.7499285624335118 0
          0.6394931890626028 0.7687967619225138 0 0.6016790578736682 0.798737949089847 0
          0.8127791343412977 0.5825719515900252 0 0.7106891362735941 0.7035061844665567 0
          0.6781769874352945 0.7348986145810784 0 0.752644105456528 0.658427559053798 0
          0.6822138875543211 0.7311526595917026 0 0.685076649815692 0.7284709904157527 0
          0.5702325351249623 0.8214833266019211 0 0.6744471074830716 0.7383231671888117 0
          0.7464322484956675 0.6654614176687498 0 0.5019566409323609 0.864892785623687 0
          0.8294128267926124 0.5586361631257755 0 0.7064518494749812 0.7077611068527138 0
          0.697074079225166 0.7169991130206418 0 0.7168839852012104 0.6971924782741354 0
          0.6908542512336617 0.7229940549910328 0 0.7071067811865688 0.7071067811865264 0
          0.7137220059623118 0.7004290814958596 0 0.7413496046641035 0.6711190383712696 0
          0.6802568709712454 0.7329737986424962 0 0.7073071936141258 0.706906311940776 0
          0.7101249439304421 0.704075680596757 0 0.7227004478445271 0.6911613868593354 0
          0.709967441648373 0.7042345005743925 0 0.7071067811865768 0.707106781186518 0
          0.7088138071312386 0.7053956243273125 0 0.6786438320854695 0.734467527650031 0
          0.7713288158418038 0.6364368451402548 0 0.5555948369152164 0.8314531719785271 0
          0.8139881066997384 0.5808815388281636 0 0.7136609556020737 0.7004912850629443 0
          0.554728953141137 0.8320311223427511 0 0.7379321022144099 0.6748749606567291 0
          0.6217319101813167 0.7832301270139518 0 0.6571696155169879 0.7537427256307381 0
          0.8631698795428545 0.5049136154333469 0 0.7783757316985109 0.6277987100200252 0
          0.5990255130112553 0.8007299387194178 0 0.6688075678563962 0.7434355635682303 0
          0.7066641202974049 0.7075491651357486 0 0.4963919906656648 0.8680984918792215 0
          0.6434542103124609 0.765484604176444 0 0.7431488702209015 0.669126114188796 0
          0.7930390994838122 0.60917073689558 0 0.7567286722914046 0.653729084967227 0
          0.7351851680672202 0.6778663353891924 0 0.6887123026044963 0.7250347331274637 0
          0.8218979147663327 0.5696348108242282 0 0.5478989963529635 0.8365444936137081 0
          0.7745281618004964 0.6325394268960189 0 0.6711115262862489 0 -0.7413564050345429
          0.6959744383649252 0 -0.7180665575993823 0.6953411435943598 0 -0.7186798272004634
          0.7288523708308843 0 -0.6846708855604998 0.6441699763968444 0 -0.7648823710276561
          0.6553782323942922 0 -0.7553008490023914 0.7053330249272066 0 -0.708876099150646
          0.7180871062281534 0 -0.6959532368405773 0.7207220400324383 0 -0.6932241636090598
          0.7183175115713444 0 -0.6957154249906721 0.7188242279913146 0 -0.6951918650650988
          0.6993417160209963 0 -0.7147874958565015 0.700676671306421 0 -0.7134789431279339
          0.6959744383649249 0 -0.7180665575993825 0.6721375782369535 0 -0.7404262798697538
          -0.9972317221494498 -0.07423091406270116 0.00432015465676004 -0.9986601291565844 0.05174432034132025 0.0006868372216031769
          -0.9976899641653066 0.06515929429418832 -0.0192094188072529 -0.9993843112928587 0.031601946484603384 0.015241893585864976
          -0.997636665714992 0.06870137400206972 -0.0010974658541584 -0.9999310449984219 0.010526191735657078 0.005206201677612651
          -0.9987123491654485 0.05071256136156921 -0.0013710377748891991 -0.9988882597209208 0.04682464204487018 0.005449540263198323
          -0.9995636980375217 0.029236413671716806 -0.004200676275357361 -0.9996120777619262 -0.027477447001583256 -0.004547955448331022
          -0.9992213733092677 -0.03943068231509545 0.0013668994502436472 -0.9994966555301463 -0.03171821077908652 -0.0006250512180599656
          -0.9979444548094598 -0.06355290426516504 -0.00823974966323455 -0.9962207783704827 -0.08595848275632056 0.01246194146755921
          -0.9999745902451385 -0.00022886960080274754 -0.007125060194367984 -0.9991843588669388 0.039144026860599854 0.009917769749355007
          -0.9999577297088188 0.00918741911885815 0.0003607291498939637 -0.9999911825411889 -0.004199371610064363 -0.000010860719860428182
          -0.999999969862174 -0.00016051908147945743 -0.00018576672403787243 -0.9999740801507299 0.007176751142923008 0.0005772951882062765
          -0.99882899239764 -0.04551409547932973 -0.016404604799064602 -0.9969266025615378 -0.07781613727756313 0.009055268317894015
          -0.9997252095291734 -0.02312372898365413 -0.0038468935182816525 -0.9999296031783328 0.0017391519303008483 -0.011737292625868284
          -0.99427985388197 0.1066057645696399 0.006540881054611602 -0.9992378770003889 0.03336303195114758 0.020262607600759572
          -0.9983526265194697 0.05737056721930603 -0.0008069316027439095 -0.9999895821140715 -0.004324482033062988 0.0014609991342247044
          -0.9991862181117783 -0.03592180405991189 -0.01834463214575097 -0.9944171441271918 -0.10547945647144827 -0.0029372995093559636
          -0.9944093014129933 -0.1055685246817098 -0.0023297767811327652 -0.9926630806862232 -0.12085468888795232 0.003761969741095168
          -0.9988446389390921 -0.0458523889810473 -0.014385606951582816 -0.9994486222366303 0.032637275527957615 0.006104076950170169
          -0.9975162610169032 0.07013913641584277 0.006466107770311816 -0.9982436387606322 0.05909866797589512 -0.004121300450996223
          -0.9968354596482863 0.07809803356255031 0.0148244238151889 -0.9968546835390342 0.07862911381762924 0.009909710719598619
          -0.9992066946709135 -0.03981462814111396 -0.0008813119837264526 -0.9939540156272307 0.10979669926324657 -0.00031567293011501904
          -0.9988480163161312 -0.04797530254959743 -0.0010053092083414938 -0.9999751353829884 -0.0069397066771087765 0.0012526320328177982
          -0.9999997026038623 -0.0007668935530716245 0.00008164842445948349 -0.9999937465434088 0.0034537701261243463 0.0007604906263796723
          -0.9998012800745898 0.01962413887458695 0.003506213718891591 -0.9970624441225461 0.0765929664598265 -0.0000030427799535408004
          -0.9898000271953707 -0.14175609238619036 -0.014181552645644108 -0.9937458347054492 -0.11166461896603001 0.0004784106408013693
          -0.9938740449298783 -0.11051869790188729 -0.000015125930327055913 -0.9938538340319317 -0.11070026843970684 -0.00008454233356796495
          -0.9937544305658023 -0.11158837713615906 -0.0004072087381894093 -0.9937080569165668 -0.1120006555726332 0.00038829164519076
          -0.9938098401424581 -0.1110945061338964 0.00011109854946069888 -0.99526188188365 -0.09696701156706479 0.007154378880700384
          -0.9975295074948524 -0.07023316560366982 0.0014778790088088947 -0.999377916065141 -0.033281130499342206 0.01166821468700189
          -0.9999851360433453 0.005203667996431041 0.0016277382330426061 -0.9986585245354508 -0.04833166611768359 -0.01857959695378681
          -0.9982374556940457 -0.05733281313651719 0.01532744555793505 -0.9999581201577885 -0.008929938168075744 0.0020035305878548107
          -0.9999998896781798 0.00046782520107141847 -0.000042228068827849625 -0.999999783250826 0.0006584058787549544 -1.341304101185348e-8
          -0.9999997838915516 0.0006574320079223393 -6.902010207178063e-8 -0.9999997870531384 0.0006526052060436344 -3.501586450725889e-7
          -0.9999998019672538 0.0006293349365266777 -0.0000017294074866283027 -0.9999998635037587 0.0005224224744291074 -0.000008198920256635186
          -0.9999999967270027 0.00007228707021984954 -0.00003633970545613636 -0.9999988679503279 -0.0014979774846714336 -0.00014199126065686402
          -0.9999840959770476 -0.0056376766037486625 -0.00015619051939904632 -0.9996867071439507 0.024465404656566964 0.005285029297479409